;;
;; Generated by CHARMM-GUI FF-Converter
;;
;; Correspondance:
;; jul316@lehigh.edu or wonpil@lehigh.edu
;;
;; The main GROMACS topology file
;;

; Include forcefield parameters
#include "toppar/forcefield.itp"
#include "toppar/PROA.itp"
#include "toppar/PROB.itp"
#include "toppar/PROC.itp"
#include "toppar/CHL1.itp"
#include "toppar/PLPC.itp"
#include "toppar/SSM.itp"
#include "toppar/POPC.itp"
#include "toppar/NSM.itp"
#include "toppar/PAPE.itp"
#include "toppar/POPE.itp"
#include "toppar/PAPS.itp"
#include "toppar/POPI.itp"
#include "toppar/POPA.itp"
#include "toppar/POT.itp"
#include "toppar/CLA.itp"
#include "toppar/TIP3.itp"

[ system ]
; Name
Title

[ molecules ]
; Compound	#mols
PROA  	           1
PROB  	           1
PROC  	           1
CHL1  	          66
PLPC  	          33
SSM   	          16
POPC  	          23
NSM   	          16
PAPE  	          15
POPE  	          17
PAPS  	          11
POPI  	           5
POPA  	           1
POT   	          61
CLA   	          45
TIP3  	       17149
